//// uMagNUS 2.1.2 linux_amd64 go1.17.8 (gc) 

//// OpenCL C Version OpenCL C 1.2 
// GPU: NVIDIA GeForce RTX 2080 SUPER(7974MB) 
 

////(c) Xuanyao Fong, SEEDER Research Group 

////@ National University of Singapore, Singapore 

////Web site: https://blog.nus.edu.sg/seeder 

////Email: kelvin.xy.fong@nus.edu.sg 

////Source code can be downloaded at https://github.com/seeder-research/uMagNUS 

//This is free software without any warranty. See license.txt
//********************************************************************//
//  If you use uMagNUS in any work or publication,                    //
//  we kindly ask you to cite the references in references.bib        //
//********************************************************************//
////uMagNUS is an OpenCL-based derivative of MuMax 3.10: (c) Arne Vansteenkiste, Dynamat LAB, Ghent University, Belgium 

//output directory: build/example4.out/
SetGridsize(100, 100, 50)
SetCellsize(1e-6/100, 1e-6/100, 1e-6/50)
EdgeSmooth = 8
setgeom(rect(800e-9, 500e-9))
saveas(geom, "rect")
setgeom(cylinder(800e-9, inf))
saveas(geom, "cylinder")
setgeom(circle(200e-9).repeat(300e-9, 400e-9, 0))
saveas(geom, "circle_repeat")
setgeom(cylinder(800e-9, inf).inverse())
saveas(geom, "cylinder_inverse")
setgeom(cylinder(800e-9, 600e-9).transl(200e-9, 100e-9, 0))
saveas(geom, "cylinder_transl")
setgeom(ellipsoid(800e-9, 600e-9, 500e-9))
saveas(geom, "ellipsoid")
setgeom(cuboid(800e-9, 600e-9, 500e-9))
saveas(geom, "cuboid")
setgeom(cuboid(800e-9, 600e-9, 500e-9).rotz(-10 * pi / 180))
saveas(geom, "cuboid_rotZ")
setgeom(layers(0, 25))
saveas(geom, "layers")
setgeom(cell(50, 20, 0))
saveas(geom, "cell")
setgeom(xrange(0, inf))
saveas(geom, "xrange")
a := cylinder(600e-9, 600e-9).transl(-150e-9, 50e-9, 0)
b := rect(600e-9, 600e-9).transl(150e-9, -50e-9, 0)
setgeom(a.add(b))
saveas(geom, "logicAdd")
setgeom(a.sub(b))
saveas(geom, "logicSub")
setgeom(a.intersect(b))
saveas(geom, "logicAnd")
setgeom(a.xor(b))
saveas(geom, "logicXor")
setgeom(imageShape("mask.png"))
saveas(geom, "imageShape")
//********************************************************************//
//Please cite the following references, relevant for your simulation. //
//See bibtex file in output folder for justification.                 //
//********************************************************************//
//   * Vansteenkiste et al., AIP Adv. 4, 107133 (2014).
