//// uMagNUS 2.1.2 linux_amd64 go1.17.8 (gc) 

//// OpenCL C Version OpenCL C 1.2 
// GPU: NVIDIA GeForce RTX 2080 SUPER(7974MB) 
 

////(c) Xuanyao Fong, SEEDER Research Group 

////@ National University of Singapore, Singapore 

////Web site: https://blog.nus.edu.sg/seeder 

////Email: kelvin.xy.fong@nus.edu.sg 

////Source code can be downloaded at https://github.com/seeder-research/uMagNUS 

//This is free software without any warranty. See license.txt
//********************************************************************//
//  If you use uMagNUS in any work or publication,                    //
//  we kindly ask you to cite the references in references.bib        //
//********************************************************************//
////uMagNUS is an OpenCL-based derivative of MuMax 3.10: (c) Arne Vansteenkiste, Dynamat LAB, Ghent University, Belgium 

//output directory: build/example3.out/
SetGridsize(128, 32, 1)
SetCellsize(4e-9, 4e-9, 30e-9)
Msat = 800e3
Aex = 13e-12
m = randomMag()
relax()
Bmax := 100.0e-3
Bstep := 1.0e-3
MinimizerStop = 1e-6
TableAdd(B_ext)
for B := 0.0; B <= Bmax; B += Bstep {
	B_ext = vector(B, 0, 0)
	minimize()
	tablesave()
}
for B := Bmax; B >= -Bmax; B -= Bstep {
	B_ext = vector(B, 0, 0)
	minimize()
	tablesave()
}
for B := -Bmax; B <= Bmax; B += Bstep {
	B_ext = vector(B, 0, 0)
	minimize()
	tablesave()
}
//********************************************************************//
//Please cite the following references, relevant for your simulation. //
//See bibtex file in output folder for justification.                 //
//********************************************************************//
//   * Vansteenkiste et al., AIP Adv. 4, 107133 (2014).
//   * Exl et al., J. Appl. Phys. 115, 17D118 (2014).
