//// uMagNUS 2.1.2 linux_amd64 go1.17.8 (gc) 

//// OpenCL C Version OpenCL C 1.2 
// GPU: NVIDIA GeForce RTX 2080 SUPER(7974MB) 
 

////(c) Xuanyao Fong, SEEDER Research Group 

////@ National University of Singapore, Singapore 

////Web site: https://blog.nus.edu.sg/seeder 

////Email: kelvin.xy.fong@nus.edu.sg 

////Source code can be downloaded at https://github.com/seeder-research/uMagNUS 

//This is free software without any warranty. See license.txt
//********************************************************************//
//  If you use uMagNUS in any work or publication,                    //
//  we kindly ask you to cite the references in references.bib        //
//********************************************************************//
////uMagNUS is an OpenCL-based derivative of MuMax 3.10: (c) Arne Vansteenkiste, Dynamat LAB, Ghent University, Belgium 

//output directory: build/example14.out/
sizeX := 160e-9
sizeY := 80e-9
sizeZ := 5e-9
Nx := 64
Ny := 32
setgridsize(Nx, Ny, 1)
setcellsize(sizeX/Nx, sizeY/Ny, sizeZ)
setGeom(ellipse(sizeX, sizeY))
Msat = 800e3
Aex = 13e-12
alpha = 0.01
m = uniform(1, 0, 0)
lambda = 1
Pol = 0.5669
epsilonprime = 0
angle := 20
px := cos(angle * pi / 180)
py := sin(angle * pi / 180)
fixedlayer = vector(px, py, 0)
Jtot := -0.008
area := sizeX * sizeY * pi / 4
jc := Jtot / area
J = vector(0, 0, jc)
autosave(m, 100e-12)
tableautosave(10e-12)
run(1e-9)
//********************************************************************//
//Please cite the following references, relevant for your simulation. //
//See bibtex file in output folder for justification.                 //
//********************************************************************//
//   * Vansteenkiste et al., AIP Adv. 4, 107133 (2014).
