# t (s)	mx ()	my ()	mz ()
0	1	0	0
1.0081043568178456e-11	0.99912655	-0.0225247	-0.0012851007
2.0139106232359734e-11	0.99594444	-0.042767532	-0.004687057
3.024727703444943e-11	0.9913666	-0.057437457	-0.009863085
4.02352494844306e-11	0.98961765	-0.064063706	-0.015901918
5.007400577136127e-11	0.99232024	-0.06190167	-0.02203732
6.017445550356426e-11	0.99634415	-0.050235927	-0.027969502
7.011803790939863e-11	0.998193	-0.02995241	-0.03271674
8.004385777836995e-11	0.997904	-0.0030003588	-0.035568375
9.022433508975994e-11	0.9962741	0.028471868	-0.035907872
1.0011299030513297e-10	0.99238366	0.059056338	-0.033434235
1.1008051509806902e-10	0.98536944	0.08583653	-0.028391214
1.201460189248396e-10	0.9812934	0.10568012	-0.021502825
1.3021500782678864e-10	0.9849669	0.115815744	-0.013588917
1.4008501911171137e-10	0.9895681	0.11390437	-0.0056286957
1.5010396131111008e-10	0.9891097	0.09953255	0.0016499825
1.6022407098946507e-10	0.9899532	0.07492776	0.0073584113
1.70056660662622e-10	0.9941645	0.043944284	0.011157835
1.8020474153313476e-10	0.9907255	0.0070305197	0.012493195
1.9004438099203917e-10	0.97990847	-0.029367343	0.010584091
2.0001837031465235e-10	0.9750536	-0.06403835	0.0059226323
2.1017762134320844e-10	0.9800468	-0.09442309	-0.00086325617
2.2014247087921469e-10	0.9829642	-0.11467306	-0.0084912265
2.302433430054767e-10	0.9787672	-0.12185452	-0.015575154
2.4011162280009094e-10	0.97599226	-0.119337514	-0.020497112
2.500651805040175e-10	0.97712106	-0.114703104	-0.024966573
2.6021342796232514e-10	0.97298265	-0.10622115	-0.032558683
2.7018341093563984e-10	0.9577038	-0.08430604	-0.041400094
2.8017853760921773e-10	0.95291173	-0.048275925	-0.047010854
2.9002217625118866e-10	0.97191143	-0.004891015	-0.050023496
3.000249798322517e-10	0.98132724	0.043840412	-0.053742535
3.101849792167772e-10	0.9626409	0.094101675	-0.059516825
3.201082871754805e-10	0.9344721	0.1505413	-0.06800673
3.3016812809513954e-10	0.906589	0.2319629	-0.07135866
3.4006521284827113e-10	0.8722436	0.31818387	-0.058048278
3.5004396960881255e-10	0.83333164	0.3795967	-0.031122357
3.602179950893413e-10	0.8172586	0.41514906	-0.002938788
3.7001228043186926e-10	0.84011215	0.42804933	0.022771567
3.800090445711861e-10	0.87569517	0.40305167	0.053992033
3.901964540285874e-10	0.8815987	0.31303895	0.091972165
4.0013872470260865e-10	0.85906935	0.16918994	0.12660988
4.101875073926436e-10	0.83843976	-0.011706667	0.15389451
4.201776088814165e-10	0.81788033	-0.22909467	0.16264124
4.300956209595706e-10	0.7641633	-0.46951884	0.14181754
4.4025410232917907e-10	0.65286237	-0.67759275	0.10109601
4.5008585148009584e-10	0.51318043	-0.78435177	0.057492353
4.600122183423012e-10	0.3992995	-0.8153741	0.011146038
4.702236064030584e-10	0.33798498	-0.81636435	-0.036192182
4.800598314712208e-10	0.349124	-0.805469	-0.07515606
4.900228693747517e-10	0.42847005	-0.77467245	-0.10450245
5.002191066345834e-10	0.54152286	-0.7109525	-0.1277638
5.102342489414053e-10	0.6505703	-0.6327542	-0.14632043
5.200176450729945e-10	0.75218123	-0.5414537	-0.16716431
5.30017675448456e-10	0.8287599	-0.38709447	-0.19167984
5.401843063378058e-10	0.8391516	-0.15644991	-0.20478664
5.501196622310827e-10	0.7776503	0.09113227	-0.20784092
5.601850734451368e-10	0.6564735	0.29939657	-0.20048243
5.701086674897527e-10	0.5495305	0.4597123	-0.18068144
5.801053473971619e-10	0.45708	0.6370391	-0.14781657
5.901367402300784e-10	0.3595724	0.80073386	-0.116296425
6.000983050668026e-10	0.23824751	0.8374212	-0.09316849
6.100770860174096e-10	0.10929236	0.7453085	-0.07814155
6.200860056817788e-10	0.036533512	0.6434826	-0.07180937
6.301649585757382e-10	-0.034169577	0.6004112	-0.060811616
6.40130445685974e-10	-0.15998143	0.57811683	-0.058105852
6.50249848026454e-10	-0.31368238	0.577892	-0.06974789
6.601573398219727e-10	-0.4656919	0.6213633	-0.06813939
6.70024615446759e-10	-0.6175826	0.6334284	-0.08025203
6.802236219766773e-10	-0.706382	0.5231938	-0.10213995
6.900339132701348e-10	-0.73954785	0.34087187	-0.10683161
7.001344552274342e-10	-0.7677967	0.1472693	-0.1015217
7.101798965610552e-10	-0.79416156	0.015060964	-0.10105266
7.200800104279052e-10	-0.8222225	-0.08584112	-0.096952744
7.301003371434129e-10	-0.8635063	-0.2100737	-0.08011697
7.401444155805862e-10	-0.899763	-0.2944363	-0.058197916
7.501510038302496e-10	-0.8849957	-0.32572806	-0.028533718
7.600334358390052e-10	-0.8502309	-0.32200596	0.0056471936
7.701970283146048e-10	-0.8380642	-0.2884215	0.032203287
7.801988910139244e-10	-0.8526252	-0.2524365	0.04330063
7.90072376321638e-10	-0.9005142	-0.21159655	0.043392256
8.001171839763393e-10	-0.94500715	-0.16031621	0.04391756
8.101279207787382e-10	-0.9653449	-0.11024824	0.0510008
8.20203644209723e-10	-0.9771519	-0.06393684	0.058033895
8.300412312424457e-10	-0.9732931	-0.017033163	0.057642687
8.402024798809455e-10	-0.96529084	0.028956389	0.045052618
8.501444733802135e-10	-0.9683279	0.06146189	0.03160585
8.601924606378796e-10	-0.97205544	0.08312663	0.028749548
8.70220122134065e-10	-0.97809035	0.1010497	0.030018913
8.800710706754747e-10	-0.9847353	0.11541414	0.025269989
8.902247033391592e-10	-0.9851948	0.115371004	0.013497852
9.00186223555496e-10	-0.9866381	0.099623695	-0.00033595663
9.100305980743824e-10	-0.9896507	0.071584225	-0.00931907
9.200850779900895e-10	-0.98857504	0.032948393	-0.010497647
9.300376972124108e-10	-0.9890738	-0.0042316383	-0.0076065
9.402292701353592e-10	-0.9916368	-0.03659294	-0.004320707
9.502072232180291e-10	-0.99219286	-0.06313423	-0.0021496108
9.602427365324605e-10	-0.99264896	-0.08310261	0.0011662923
9.700885298297e-10	-0.99324673	-0.09229442	0.007902153
9.802076213291568e-10	-0.9931787	-0.089422256	0.017050521
9.900251078181067e-10	-0.99331325	-0.076467246	0.024817152
1e-09	-0.9933673	-0.05763858	0.028761445
