//// uMagNUS 2.1.2 linux_amd64 go1.17.8 (gc) 

//// OpenCL C Version OpenCL C 1.2 
// GPU: NVIDIA GeForce RTX 2080 SUPER(7974MB) 
 

////(c) Xuanyao Fong, SEEDER Research Group 

////@ National University of Singapore, Singapore 

////Web site: https://blog.nus.edu.sg/seeder 

////Email: kelvin.xy.fong@nus.edu.sg 

////Source code can be downloaded at https://github.com/seeder-research/uMagNUS 

//This is free software without any warranty. See license.txt
//********************************************************************//
//  If you use uMagNUS in any work or publication,                    //
//  we kindly ask you to cite the references in references.bib        //
//********************************************************************//
////uMagNUS is an OpenCL-based derivative of MuMax 3.10: (c) Arne Vansteenkiste, Dynamat LAB, Ghent University, Belgium 

//output directory: build/example2.out/
Msat = 1000e3
Aex = 10e-12
lex := sqrt(10e-12 / (0.5 * mu0 * pow(1000e3, 2)))
d := 30 * lex
Sizex := 5 * d
Sizey := 1 * d
Sizez := 0.1 * d
nx := pow(2, ilogb(Sizex/(0.75*lex)))
ny := pow(2, ilogb(Sizey/(0.75*lex)))
SetGridSize(nx, ny, 1)
SetCellSize(Sizex/nx, Sizey/ny, Sizez)
m = Uniform(1, 0.1, 0)
relax()
save(m)
print("<m> for d/lex=30: ", m.average())
//<m> for d/lex=30:  [0.9630155563354492 0.07534660398960114 0]
//********************************************************************//
//Please cite the following references, relevant for your simulation. //
//See bibtex file in output folder for justification.                 //
//********************************************************************//
//   * Vansteenkiste et al., AIP Adv. 4, 107133 (2014).
