//// uMagNUS 2.1.2 linux_amd64 go1.17.8 (gc) 

//// OpenCL C Version OpenCL C 1.2 
// GPU: NVIDIA GeForce RTX 2080 SUPER(7974MB) 
 

////(c) Xuanyao Fong, SEEDER Research Group 

////@ National University of Singapore, Singapore 

////Web site: https://blog.nus.edu.sg/seeder 

////Email: kelvin.xy.fong@nus.edu.sg 

////Source code can be downloaded at https://github.com/seeder-research/uMagNUS 

//This is free software without any warranty. See license.txt
//********************************************************************//
//  If you use uMagNUS in any work or publication,                    //
//  we kindly ask you to cite the references in references.bib        //
//********************************************************************//
////uMagNUS is an OpenCL-based derivative of MuMax 3.10: (c) Arne Vansteenkiste, Dynamat LAB, Ghent University, Belgium 

//output directory: build/example6.out/
setgridsize(128, 128, 1)
setcellsize(2e-9, 2e-9, 2e-9)
d := 200e-9
sq := rect(d, d)
h := 50e-9
hole := cylinder(h, h)
hole1 := hole.transl(100e-9, 0, 0)
hole2 := hole.transl(0, -50e-9, 0)
cheese := sq.sub(hole1).sub(hole2)
setgeom(cheese)
msat = 600e3
aex = 12e-13
alpha = 3
for i := 0; i <= 90; i = i + 30 {
	angle := i * pi / 180
	setgeom(cheese.rotz(angle))
	m = uniform(cos(angle), sin(angle), 0)
	minimize()
	save(m)
}
//********************************************************************//
//Please cite the following references, relevant for your simulation. //
//See bibtex file in output folder for justification.                 //
//********************************************************************//
//   * Vansteenkiste et al., AIP Adv. 4, 107133 (2014).
//   * Exl et al., J. Appl. Phys. 115, 17D118 (2014).
