//// uMagNUS 2.1.2 linux_amd64 go1.17.8 (gc) 

//// OpenCL C Version OpenCL C 1.2 
// GPU: NVIDIA GeForce RTX 2080 SUPER(7974MB) 
 

////(c) Xuanyao Fong, SEEDER Research Group 

////@ National University of Singapore, Singapore 

////Web site: https://blog.nus.edu.sg/seeder 

////Email: kelvin.xy.fong@nus.edu.sg 

////Source code can be downloaded at https://github.com/seeder-research/uMagNUS 

//This is free software without any warranty. See license.txt
//********************************************************************//
//  If you use uMagNUS in any work or publication,                    //
//  we kindly ask you to cite the references in references.bib        //
//********************************************************************//
////uMagNUS is an OpenCL-based derivative of MuMax 3.10: (c) Arne Vansteenkiste, Dynamat LAB, Ghent University, Belgium 

//output directory: build/example8.out/
Nx := 256
Ny := 256
Nz := 1
setgridsize(Ny, Nx, Nz)
c := 4e-9
setcellsize(c, c, c)
setgeom(circle(Nx * c))
Msat = 800e3
Aex = 12e-13
alpha = 1
m = vortex(1, 1)
save(m)
save(m.Comp(0))
save(Crop(m, 0, Nx/2, 0, Ny/2, 0, Nz))
mx := m.Comp(0)
mx_center := CropY(mx, Ny/4, 3*Ny/4)
save(mx_center)
//********************************************************************//
//Please cite the following references, relevant for your simulation. //
//See bibtex file in output folder for justification.                 //
//********************************************************************//
//   * Vansteenkiste et al., AIP Adv. 4, 107133 (2014).
